49
	Energy:     271.2073281
O          8.59132        8.10281        2.36223
O         11.09371        9.15608        5.06976
O         11.65865       12.83248        5.58122
O          8.78014       11.55671        2.64516
N          8.72402        9.48387        0.51938
H          9.35137        9.78982       -0.21196
N         11.41040        9.06128        2.25343
N         13.35672        9.41825        5.07483
H         14.19388        9.24559        4.53208
N         11.25639       11.54020        7.38533
H         11.22968       11.93827        8.31609
N          8.82677       12.12546        5.37135
N          6.56933       11.57323        2.67203
H          5.73448       11.81948        3.17660
C          9.24271        8.62073        1.45830
C         10.71525        8.29671        1.39877
C         12.22027        8.42593        3.12043
C         12.17340        9.00485        4.50474
C         13.39557       10.58548        5.97172
H         14.41475       10.52428        6.37405
H         13.40116       11.47558        5.34239
C         12.44560       10.66036        7.22185
H         12.12122        9.65271        7.49895
H         13.09005       11.02280        8.02821
C         10.87531       12.47311        6.44093
C          9.43620       12.91406        6.29068
C          7.89676       12.66664        4.54492
C          7.78901       11.91748        3.22937
C          6.58208       10.29353        1.92504
H          6.83987        9.51704        2.64652
H          5.53262       10.14155        1.65423
C          7.42463       10.18381        0.59987
H          7.61413       11.18643        0.20024
H          6.80054        9.66607       -0.13765
C         11.10340        6.99178        1.10357
H         10.50757        6.36872        0.44513
C         12.15821        6.43032        1.83755
H         12.43277        5.38800        1.69114
C         12.67744        7.13543        2.92468
H         13.29116        6.64510        3.67000
C          8.99814       14.21388        6.55185
H          9.54011       14.89053        7.20969
C          7.87950       14.68383        5.83463
H          7.49704       15.68998        6.01577
C          7.34982       13.91872        4.77713
H          6.61037       14.34353        4.10752
O         11.00335       11.48646        3.57113
H         11.77984       11.31494        4.10284
H         10.30647       11.18479        4.19904
