49
	Energy:     160.5697469
O          8.82329        7.74809       -0.37976
O         10.83344        9.13221        5.16750
O         11.43637       13.39655        7.45205
O          6.31238       12.65638        2.69202
N          9.10340        9.77608        0.70026
H          9.68441       10.16334        1.43010
N         10.84152        8.69156        2.33159
N         13.08619        9.35547        4.89900
H         13.85773        9.12827        4.29022
N         11.09114       11.33435        6.52205
H         10.48198       10.78418        5.90584
N          8.91468       12.40448        5.14417
N          7.62716       10.85406        3.11401
H          8.34075       10.46299        3.74944
C          9.42948        8.46506        0.40801
C         10.57251        7.94900        1.22982
C         11.73763        8.19081        3.21469
C         11.85295        8.90489        4.51466
C         13.31470       10.47253        5.82561
H         14.30531       10.28146        6.24892
H         13.38495       11.37615        5.20836
C         12.31751       10.69775        6.97729
H         12.04937        9.74865        7.45201
H         12.78726       11.33631        7.73469
C         10.75309       12.64334        6.76375
C          9.47831       13.13480        6.13347
C          7.80900       12.88837        4.52817
C          7.19144       12.13344        3.37185
C          7.06911       10.01577        2.06785
H          7.19478        8.97854        2.39720
H          6.00235       10.23782        2.00862
C          7.72453       10.23499        0.69208
H          7.73829       11.29723        0.42713
H          7.16828        9.68498       -0.07290
C         11.22433        6.76365        0.94010
H         10.97204        6.19265        0.05276
C         12.19825        6.31771        1.83777
H         12.72569        5.38677        1.65253
C         12.45688        7.03555        3.00297
H         13.15475        6.68046        3.75008
C          8.93691       14.32751        6.57110
H          9.40479       14.87506        7.37952
C          7.78106       14.79616        5.95893
H          7.32488       15.72214        6.29047
C          7.21674       14.07617        4.91298
H          6.32383       14.42806        4.41079
O          9.89742       10.72116        3.77889
H         10.85186       10.69860        3.86346
H          9.69672       11.12047        2.93371
