49
	Energy:     118.7702159
O         10.70814       13.26542       -0.35421
O         12.56662       15.17112        5.69928
O         15.77062       10.89580        3.49334
O         10.03938        9.94855        1.92208
N          8.68237       12.95004        0.70075
H          8.18219       13.06570        1.57458
N         11.00635       13.93959        2.73697
N         12.53509       13.05188        4.80891
H         12.30780       12.55183        3.95178
N         13.64479       10.47199        4.30015
H         12.69765       10.24263        3.98783
N         12.68203       10.28607        1.92464
N          9.84866       10.36200       -0.32241
H         10.33260       10.78681       -1.10425
C          9.95375       13.47898        0.58889
C         10.33174       14.43183        1.66828
C         11.35675       14.86149        3.67821
C         12.19229       14.38802        4.83188
C         13.65977       12.57074        5.59909
H         14.56192       13.01169        5.15996
H         13.56983       12.95439        6.62132
C         13.77475       11.04360        5.62033
H         12.96887       10.61345        6.22392
H         14.73491       10.74128        6.04933
C         14.60033       10.58109        3.31295
C         14.03664       10.34233        1.94732
C         12.07691       10.15043        0.72722
C         10.57804       10.12907        0.82887
C          8.42335       10.62904       -0.23234
H          7.94771       10.08946       -1.05712
H          8.02124       10.22974        0.70535
C          8.09541       12.12472       -0.34159
H          7.01129       12.26702       -0.29007
H          8.43864       12.50189       -1.31214
C          9.96625       15.76573        1.50432
H          9.42886       16.09120        0.61937
C         10.32322       16.67216        2.49504
H         10.06945       17.72501        2.40154
C         11.03527       16.21657        3.59971
H         11.35325       16.90729        4.37633
C         14.82967       10.25171        0.81639
H         15.91112       10.31188        0.88644
C         14.18679       10.08500       -0.40985
H         14.77173       10.00066       -1.32329
C         12.78875       10.03625       -0.46213
H         12.29286        9.90184       -1.41583
O         10.46413        9.84517        4.58383
H         10.31721        9.73743        3.61644
H          9.79526       10.51131        4.80346
